 +-------------------------------------------------+
 |                                                 |
 |      CCC   AA    SSS  TTTTT  EEEEE  PPPP        |
 |     C     A  A  S       T    E      P   P       |
 |     C     AAAA   SS     T    EEE    PPPP        |
 |     C     A  A     S    T    E      P           |
 |      CCC  A  A  SSS     T    EEEEE  P           |
 |                                                 |
 +-------------------------------------------------+
 |                                                 |
 | Welcome to Academic Release CASTEP version 9.0  |
 | Ab Initio Total Energy Program                  |
 |                                                 |
 | Authors:                                        |
 | M. Segall, M. Probert, C. Pickard, P. Hasnip,   |
 | S. Clark, K. Refson, J. R. Yates, M. Payne      |
 |                                                 |
 | Contributors:                                   |
 | P. Lindan, P. Haynes, J. White, V. Milman,      |
 | N. Govind, M. Gibson, P. Tulip, V. Cocula,      |
 | B. Montanari, D. Quigley, M. Glover,            |
 | L. Bernasconi, A. Perlov, M. Plummer,           |
 | E. McNellis, J. Meyer, J. Gale, D. Jochym       |
 | J. Aarons, B. Walker, R. Gillen, D. Jones       |
 | T. Green, I. J. Bush, C. J. Armstrong,          |
 | E. J. Higgins, M. D. Hodgson                    |
 |                                                 |
 | Copyright (c) 2000 - 2015                       |
 |                                                 |
 |     Distributed under the terms of an           |
 |     Agreement between the United Kingdom        |
 |     Car-Parrinello (UKCP) Consortium,           |
 |     Daresbury Laboratory and Accelrys, Inc.     |
 |                                                 |
 | Please cite                                     |
 |                                                 |
 |     "First principles methods using CASTEP"     |
 |                                                 |
 |         Zeitschrift fuer Kristallographie       |
 |           220(5-6) pp. 567-570 (2005)           |
 |                                                 |
 | S. J. Clark, M. D. Segall, C. J. Pickard,       |
 | P. J. Hasnip, M. J. Probert, K. Refson,         |
 | M. C. Payne                                     |
 |                                                 |
 |       in all publications arising from          |
 |              your use of CASTEP                 |
 |                                                 |
 +-------------------------------------------------+
 
 
 Compiled for linux_x86_64_ifort12 on Fri, 09 Oct 2015 16:14:59 +0100
 from code version 01cdeb6dcbec+  Thu, 01 Oct 2015 17:06:55 +0100
 Compiler: Intel Fortran 12.1.5.339; Optimisation: fast
 MATHLIBS: Intel MKL(11.0.5) (LAPACK version 3.4.1)
 FFT Lib : default
 Fundamental constants values: CODATA 2010
 
 Run started: Wed, 10 May 2017 12:02:25 +0100
 
 Pseudo atomic calculation performed for O 2s2 2p4
 
 Converged in 31 iterations to a total energy of -433.8562 eV
 
 
 Pseudo atomic calculation performed for Mg 2s2 2p6 3s2
 
 Converged in 27 iterations to a total energy of -1690.9398 eV
 
 
 Pseudo atomic calculation performed for Ca 3s2 3p6 4s2
 
 Converged in 24 iterations to a total energy of -1004.5258 eV
 
 Calculation not parallelised.

 ************************************ Title ************************************
 MgO

 ***************************** General Parameters ******************************
  
 output verbosity                               : normal  (1)
 write checkpoint data to                       : MgOnew.check
 type of calculation                            : geometry optimization
 stress calculation                             : on
 density difference calculation                 : off
 electron localisation func (ELF) calculation   : off
 Hirshfeld analysis                             : off
 unlimited duration calculation
 timing information                             : on
 memory usage estimate                          : on
 write final potential to formatted file        : off
 write final density to formatted file          : off
 write BibTeX reference list                    : on
 write OTFG pseudopotential files               : on
 checkpoint writing                             : both castep_bin and check files
  
 output         length unit                     : A
 output           mass unit                     : amu
 output           time unit                     : ps
 output         charge unit                     : e
 output           spin unit                     : hbar/2
 output         energy unit                     : eV
 output          force unit                     : eV/A
 output       velocity unit                     : A/ps
 output       pressure unit                     : GPa
 output     inv_length unit                     : 1/A
 output      frequency unit                     : cm-1
 output force constant unit                     : eV/A**2
 output         volume unit                     : A**3
 output   IR intensity unit                     : (D/A)**2/amu
 output         dipole unit                     : D
 output         efield unit                     : eV/A/e
 output        entropy unit                     : J/mol/K
  
 wavefunctions paging                           : none
 random number generator seed                   : randomised (120225612)
 data distribution                              : optimal for this architecture
 optimization strategy                          : maximize speed(+++)

 *********************** Exchange-Correlation Parameters ***********************
  
 using functional                               : Perdew Burke Ernzerhof
 relativistic treatment                         : Koelling-Harmon
 DFT+D: Semi-empirical dispersion correction    : off

 ************************* Pseudopotential Parameters **************************
  
 pseudopotential representation                 : reciprocal space
 <beta|phi> representation                      : reciprocal space
 spin-orbit coupling                            : off

 **************************** Basis Set Parameters *****************************
  
 plane wave basis set cut-off                   :   500.0000   eV
 size of standard grid                          :     2.0000
 size of   fine   gmax                          :    22.9115   1/A
 finite basis set correction                    : automatic
 number of sample energies                      :          3
           sample  spacing                      :     5.0000   eV

 **************************** Electronic Parameters ****************************
  
 number of  electrons                           :  128.0    
 net charge of system                           :  0.000    
 treating system as non-spin-polarized
 number of bands                                :         77

 ********************* Electronic Minimization Parameters **********************
  
 Method: Treating system as metallic with density mixing treatment of electrons,
         and number of  SD  steps               :          1
         and number of  CG  steps               :          4
  
 total energy / atom convergence tol.           : 0.1000E-06   eV
 eigen-energy convergence tolerance             : 0.2500E-07   eV
 max force / atom convergence tol.              : ignored
 convergence tolerance window                   :          3   cycles
 max. number of SCF cycles                      :         60
 number of fixed-spin iterations                :         10
 smearing scheme                                : Gaussian
 smearing width                                 : 0.2000       eV
 Fermi energy convergence tolerance             : 0.2721E-13   eV
 periodic dipole correction                     : NONE

 ************************** Density Mixing Parameters **************************
  
 density-mixing scheme                          : Pulay
 max. length of mixing history                  :         30
 charge density mixing amplitude                : 0.8000    
 cut-off energy for mixing                      :  500.0       eV

 *********************** Population Analysis Parameters ************************
  
 Population analysis with cutoff                :  3.000       A

 ********************** Geometry Optimization Parameters ***********************
  
 optimization method                            : BFGS
 variable cell method                           : fixed basis quality
 max. number of steps                           :         30
 estimated bulk modulus                         :  500.0       GPa
 estimated <frequency>                          :  1668.       cm-1
 geom line minimiser                            : on
 with line minimiser tolerance                  :     0.4000
 total energy convergence tolerance             : 0.2000E-04   eV/atom
        max ionic |force| tolerance             : 0.5000E-01   eV/A
 max ionic |displacement| tolerance             : 0.1000E-02   A
   max |stress component| tolerance             : 0.1000       GPa
 convergence tolerance window                   :          2   steps
 backup results every                           :          5   steps

 *******************************************************************************
  
 
                           -------------------------------
                                      Unit Cell
                           -------------------------------
        Real Lattice(A)                      Reciprocal Lattice(1/A)
   4.2000000   0.0000000   0.0000000        1.4959965   0.0000000   0.0000000
   0.0000000   8.4000000   0.0000000        0.0000000   0.7479983   0.0000000
   0.0000000   0.0000000   4.2000000        0.0000000   0.0000000   1.4959965
 
                       Lattice parameters(A)       Cell Angles
                    a =    4.200000          alpha =   90.000000
                    b =    8.400000          beta  =   90.000000
                    c =    4.200000          gamma =   90.000000
 
                       Current cell volume =  148.176000       A**3
 
                           -------------------------------
                                     Cell Contents
                           -------------------------------
                         Total number of ions in cell =   16
                      Total number of species in cell =    3
                        Max number of any one species =    8
 
            xxxxxxxxxxxxxxxxxxxxxxxxxxxxxxxxxxxxxxxxxxxxxxxxxxxxxxxxxxxx
            x  Element    Atom        Fractional coordinates of atoms  x
            x            Number           u          v          w      x
            x----------------------------------------------------------x
            x  O            1         0.500000   0.750000   0.500000   x 
            x  O            2         0.500000   0.500000   0.000000   x 
            x  O            3         0.000000   0.750000   0.000000   x 
            x  O            4         0.000000   0.500000   0.500000   x 
            x  O            5         0.500000   0.250000   0.500000   x 
            x  O            6         0.500000   0.000000   0.000000   x 
            x  O            7         0.000000   0.250000   0.000000   x 
            x  O            8         0.000000   0.000000   0.500000   x 
            x  Mg           1         0.000000   0.000000   0.000000   x 
            x  Mg           2         0.000000   0.250000   0.500000   x 
            x  Mg           3         0.500000   0.000000   0.500000   x 
            x  Mg           4         0.500000   0.250000   0.000000   x 
            x  Ca           1         0.000000   0.500000   0.000000   x 
            x  Ca           2         0.000000   0.750000   0.500000   x 
            x  Ca           3         0.500000   0.500000   0.500000   x 
            x  Ca           4         0.500000   0.750000   0.000000   x 
            xxxxxxxxxxxxxxxxxxxxxxxxxxxxxxxxxxxxxxxxxxxxxxxxxxxxxxxxxxxx
 
 
                         No user defined ionic velocities
 
                           -------------------------------
                                   Details of Species
                           -------------------------------
 
                               Mass of species in AMU
                                    O   15.9994000
                                    Mg   24.3050000
                                    Ca   40.0780000
 
                          Electric Quadrupole Moment (Barn)
                                    O   -0.0255800 Isotope 17
                                    Mg    0.1994000 Isotope 25
                                    Ca   -0.0408000 Isotope 43
 
                          Files used for pseudopotentials:
                                    O O_OTF.usp
                                    Mg Mg_OTF.usp
                                    Ca Ca_OTF.usp
 
                           -------------------------------
                              k-Points For BZ Sampling
                           -------------------------------
                       MP grid size for SCF calculation is  2  2  2
                            with an offset of   0.000  0.000  0.000
                       Number of kpoints used =             1
 
                           -------------------------------
                               Symmetry and Constraints
                           -------------------------------
 
                      Cell is a supercell containing 2 primitive cells
                      Maximum deviation from symmetry = 0.188002E-14     ANG
 
                      Number of symmetry operations   =          32
                      Number of ionic constraints     =           3
                      Point group of crystal =    15: D4h, 4/mmm, 4/m 2/m 2/m
                      Space group of crystal =   129: P4/nmm, P 4ab 2ab -1ab
 
             Set iprint > 1 for details on symmetry rotations/translations
 
                         Centre of mass is constrained
             Set iprint > 1 for details of linear ionic constraints
 
                         Number of cell constraints= 4
                         Cell constraints are:  1 2 1 0 0 0
 
                         External pressure/stress (GPa)
                          0.00000   0.00000   0.00000
                                    0.00000   0.00000
                                              0.00000
  
+---------------- MEMORY AND SCRATCH DISK ESTIMATES PER PROCESS --------------+
|                                                     Memory          Disk    |
| Baseline code, static data and system overhead      146.0 MB         0.0 MB |
| BLAS internal memory storage                          0.0 MB         0.0 MB |
| Model and support data                              292.7 MB         0.0 MB |
| Electronic energy minimisation requirements          23.5 MB         0.0 MB |
| Force calculation requirements                        8.5 MB         0.0 MB |
| Stress calculation requirements                      10.0 MB         0.0 MB |
|                                               ----------------------------- |
| Approx. total storage required per process          462.1 MB         0.0 MB |
|                                                                             |
| Requirements will fluctuate during execution and may exceed these estimates |
+-----------------------------------------------------------------------------+
Calculating finite basis set correction with  3 cut-off energies.
Calculating total energy with cut-off of  490.000eV.
------------------------------------------------------------------------ <-- SCF
SCF loop      Energy           Fermi           Energy gain       Timer   <-- SCF
                               energy          per atom          (sec)   <-- SCF
------------------------------------------------------------------------ <-- SCF
Initial  -1.17556252E+004  0.00000000E+000                         3.10  <-- SCF
      1  -1.39977929E+004  9.33236407E+000   1.40135477E+002       4.09  <-- SCF
      2  -1.43541751E+004  9.26687259E+000   2.22738885E+001       4.79  <-- SCF
      3  -1.43620840E+004  9.05934119E+000   4.94306818E-001       5.59  <-- SCF
      4  -1.43574782E+004  1.01048496E+001  -2.87862664E-001       6.75  <-- SCF
      5  -1.43471601E+004  1.04301124E+001  -6.44879020E-001       7.93  <-- SCF
      6  -1.43468158E+004  1.10899681E+001  -2.15214783E-002       9.21  <-- SCF
      7  -1.43467013E+004  1.12049769E+001  -7.15451329E-003      10.55  <-- SCF
      8  -1.43466855E+004  1.13031925E+001  -9.91829453E-004      11.90  <-- SCF
      9  -1.43466836E+004  1.13520081E+001  -1.13734844E-004      13.24  <-- SCF
     10  -1.43466837E+004  1.13523943E+001   2.84885684E-006      14.53  <-- SCF
     11  -1.43466837E+004  1.13526628E+001   8.09134554E-008      15.54  <-- SCF
     12  -1.43466837E+004  1.13526188E+001   1.43460735E-008      16.44  <-- SCF
------------------------------------------------------------------------ <-- SCF
 
Final energy, E             =  -14346.68368710     eV
Final free energy (E-TS)    =  -14346.68368710     eV
(energies not corrected for finite basis set)
 
NB est. 0K energy (E-0.5TS)      =  -14346.68368710     eV
 
Calculating total energy with cut-off of  495.000eV.
------------------------------------------------------------------------ <-- SCF
SCF loop      Energy           Fermi           Energy gain       Timer   <-- SCF
                               energy          per atom          (sec)   <-- SCF
------------------------------------------------------------------------ <-- SCF
Initial  -1.43466837E+004  0.00000000E+000                        17.19  <-- SCF
      1  -1.43469599E+004  1.13499832E+001   1.72603931E-002      17.99  <-- SCF
      2  -1.43469599E+004  1.13499845E+001   3.99855470E-006      19.05  <-- SCF
      3  -1.43469601E+004  1.13502789E+001   1.33733713E-005      20.15  <-- SCF
      4  -1.43469603E+004  1.13502853E+001   1.24383829E-005      21.24  <-- SCF
      5  -1.43469600E+004  1.13501884E+001  -2.02154116E-005      22.30  <-- SCF
      6  -1.43469600E+004  1.13499866E+001   1.05551471E-007      23.31  <-- SCF
      7  -1.43469600E+004  1.13500897E+001  -1.15134017E-007      24.14  <-- SCF
      8  -1.43469600E+004  1.13501264E+001   4.11871018E-009      24.91  <-- SCF
      9  -1.43469600E+004  1.13501375E+001   5.48916449E-010      25.69  <-- SCF
------------------------------------------------------------------------ <-- SCF
 
Final energy, E             =  -14346.96000683     eV
Final free energy (E-TS)    =  -14346.96000683     eV
(energies not corrected for finite basis set)
 
NB est. 0K energy (E-0.5TS)      =  -14346.96000683     eV
 
Calculating total energy with cut-off of  500.000eV.
------------------------------------------------------------------------ <-- SCF
SCF loop      Energy           Fermi           Energy gain       Timer   <-- SCF
                               energy          per atom          (sec)   <-- SCF
------------------------------------------------------------------------ <-- SCF
Initial  -1.43469600E+004  0.00000000E+000                        26.43  <-- SCF
      1  -1.43470795E+004  1.13491855E+001   7.46817181E-003      27.31  <-- SCF
      2  -1.43470795E+004  1.13491855E+001   1.40108594E-006      28.38  <-- SCF
      3  -1.43470796E+004  1.13493836E+001   3.13351169E-006      29.57  <-- SCF
      4  -1.43470796E+004  1.13493967E+001   3.19381728E-006      30.72  <-- SCF
      5  -1.43470796E+004  1.13493593E+001  -4.38294452E-006      31.83  <-- SCF
      6  -1.43470795E+004  1.13492734E+001  -1.03491342E-007      32.78  <-- SCF
      7  -1.43470795E+004  1.13493276E+001  -2.79456284E-008      33.61  <-- SCF
      8  -1.43470795E+004  1.13493506E+001   1.30916283E-009      34.44  <-- SCF
------------------------------------------------------------------------ <-- SCF
 
Final energy, E             =  -14347.07954901     eV
Final free energy (E-TS)    =  -14347.07954901     eV
(energies not corrected for finite basis set)
 
NB est. 0K energy (E-0.5TS)      =  -14347.07954901     eV
 
 For future reference: finite basis dEtot/dlog(Ecut) =     -21.804043eV
 Total energy corrected for finite basis set =  -14347.129154 eV
 
+---------------- MEMORY AND SCRATCH DISK ESTIMATES PER PROCESS --------------+
|                                                     Memory          Disk    |
| Model and support data                              302.2 MB         0.0 MB |
| Electronic energy minimisation requirements          23.5 MB         0.0 MB |
| Geometry minimisation requirements                   28.7 MB         0.0 MB |
|                                               ----------------------------- |
| Approx. total storage required per process          354.3 MB         0.0 MB |
|                                                                             |
| Requirements will fluctuate during execution and may exceed these estimates |
+-----------------------------------------------------------------------------+
 
 
 *********************************** Forces ***********************************
 *                                                                            *
 *                        Cartesian components (eV/A)                         *
 * -------------------------------------------------------------------------- *
 *                   x                    y                    z              *
 *                                                                            *
 * O         1      0.00000              2.04769              0.00000         *
 * O         2      0.00000             -2.04769              0.00000         *
 * O         3      0.00000              2.04769              0.00000         *
 * O         4      0.00000             -2.04769              0.00000         *
 * O         5      0.00000             -2.16955              0.00000         *
 * O         6      0.00000              2.16955              0.00000         *
 * O         7      0.00000             -2.16955              0.00000         *
 * O         8      0.00000              2.16955              0.00000         *
 * Mg        1      0.00000              0.49435              0.00000         *
 * Mg        2      0.00000             -0.49435              0.00000         *
 * Mg        3      0.00000              0.49435              0.00000         *
 * Mg        4      0.00000             -0.49435              0.00000         *
 * Ca        1      0.00000             -0.70287              0.00000         *
 * Ca        2      0.00000              0.70287              0.00000         *
 * Ca        3      0.00000             -0.70287              0.00000         *
 * Ca        4      0.00000              0.70287              0.00000         *
 *                                                                            *
 ******************************************************************************
 
 ***************** Stress Tensor *****************
 *                                               *
 *          Cartesian components (GPa)           *
 * --------------------------------------------- *
 *             x             y             z     *
 *                                               *
 *  x    -55.764493      0.000000      0.000000  *
 *  y      0.000000    -55.196979      0.000000  *
 *  z      0.000000      0.000000    -55.764493  *
 *                                               *
 *  Pressure:   55.5753                          *
 *                                               *
 *************************************************
 BFGS: finished iteration     0 with enthalpy= -1.43471292E+004 eV
  
 +-----------+-----------------+-----------------+------------+-----+ <-- BFGS
 | Parameter |      value      |    tolerance    |    units   | OK? | <-- BFGS
 +-----------+-----------------+-----------------+------------+-----+ <-- BFGS
 |  dE/ion   |   0.000000E+000 |   2.000000E-005 |         eV | No  | <-- BFGS
 |  |F|max   |   2.169548E+000 |   5.000000E-002 |       eV/A | No  | <-- BFGS
 |  |dR|max  |   0.000000E+000 |   1.000000E-003 |          A | No  | <-- BFGS
 |   Smax    |   5.576449E+001 |   1.000000E-001 |        GPa | No  | <-- BFGS
 +-----------+-----------------+-----------------+------------+-----+ <-- BFGS
  

================================================================================
 Starting BFGS iteration          1 ...
================================================================================
  
 +------------+-------------+-------------+-----------------+ <-- min BFGS
 |    Step    |   lambda    |   F.delta'  |    enthalpy     | <-- min BFGS
 +------------+-------------+-------------+-----------------+ <-- min BFGS
 |  previous  |    0.000000 |    3.357542 |   -14347.129154 | <-- min BFGS
 +------------+-------------+-------------+-----------------+ <-- min BFGS
  

--------------------------------------------------------------------------------
 BFGS: starting iteration         1 with trial guess (lambda=  0.855988)
--------------------------------------------------------------------------------
 
+---------------- MEMORY AND SCRATCH DISK ESTIMATES PER PROCESS --------------+
|                                                     Memory          Disk    |
| Model and support data                              303.9 MB         0.0 MB |
| Electronic energy minimisation requirements          25.3 MB         0.0 MB |
| Geometry minimisation requirements                   31.0 MB         0.0 MB |
|                                               ----------------------------- |
| Approx. total storage required per process          360.2 MB         0.0 MB |
|                                                                             |
| Requirements will fluctuate during execution and may exceed these estimates |
+-----------------------------------------------------------------------------+
 
 
                           -------------------------------
                                      Unit Cell
                           -------------------------------
        Real Lattice(A)              Reciprocal Lattice(1/A)
   4.3336545   0.0000000   0.0000000        1.4498584   0.0000000   0.0000000
   0.0000000   8.6645886   0.0000000        0.0000000   0.7251568   0.0000000
   0.0000000   0.0000000   4.3336545        0.0000000   0.0000000   1.4498584
 
                       Lattice parameters(A)       Cell Angles
                    a =    4.333655          alpha =   90.000000
                    b =    8.664589          beta  =   90.000000
                    c =    4.333655          gamma =   90.000000
 
                Current cell volume =  162.725838 A**3
 
                           -------------------------------
                                     Cell Contents
                           -------------------------------
 
            xxxxxxxxxxxxxxxxxxxxxxxxxxxxxxxxxxxxxxxxxxxxxxxxxxxxxxxxxxxx
            x  Element    Atom        Fractional coordinates of atoms  x
            x            Number           u          v          w      x
            x----------------------------------------------------------x
            x  O            1         0.500000   0.750847   0.500000   x
            x  O            2         0.500000   0.499153   0.000000   x
            x  O            3         0.000000   0.750847   0.000000   x
            x  O            4         0.000000   0.499153   0.500000   x
            x  O            5         0.500000   0.249103   0.500000   x
            x  O            6         0.500000   0.000897   0.000000   x
            x  O            7         0.000000   0.249103   0.000000   x
            x  O            8         0.000000   0.000897   0.500000   x
            x  Mg           1         0.000000   0.000204   0.000000   x
            x  Mg           2         0.000000   0.249796   0.500000   x
            x  Mg           3         0.500000   0.000204   0.500000   x
            x  Mg           4         0.500000   0.249796   0.000000   x
            x  Ca           1         0.000000   0.499709   0.000000   x
            x  Ca           2         0.000000   0.750291   0.500000   x
            x  Ca           3         0.500000   0.499709   0.500000   x
            x  Ca           4         0.500000   0.750291   0.000000   x
            xxxxxxxxxxxxxxxxxxxxxxxxxxxxxxxxxxxxxxxxxxxxxxxxxxxxxxxxxxxx
 
 
------------------------------------------------------------------------ <-- SCF
SCF loop      Energy           Fermi           Energy gain       Timer   <-- SCF
                               energy          per atom          (sec)   <-- SCF
------------------------------------------------------------------------ <-- SCF
Initial  -1.43336991E+004  0.00000000E+000                        45.65  <-- SCF
      1  -1.43612999E+004  9.46540262E+000   1.72504953E+000      46.52  <-- SCF
      2  -1.43615324E+004  9.45203493E+000   1.45321143E-002      47.91  <-- SCF
      3  -1.43550884E+004  1.05395919E+001  -4.02748194E-001      49.09  <-- SCF
      4  -1.43512047E+004  1.02950310E+001  -2.42733525E-001      50.35  <-- SCF
      5  -1.43509216E+004  1.04064075E+001  -1.76901324E-002      51.53  <-- SCF
      6  -1.43509108E+004  1.03685514E+001  -6.78744190E-004      52.84  <-- SCF
      7  -1.43509049E+004  1.03184179E+001  -3.69450855E-004      54.07  <-- SCF
      8  -1.43509035E+004  1.03001889E+001  -8.62301637E-005      55.31  <-- SCF
      9  -1.43509035E+004  1.02929382E+001  -1.94164896E-006      56.50  <-- SCF
     10  -1.43509035E+004  1.02924451E+001   5.16986874E-008      57.46  <-- SCF
     11  -1.43509035E+004  1.02923834E+001   1.33491685E-008      58.36  <-- SCF
------------------------------------------------------------------------ <-- SCF
 
Final energy, E             =  -14350.90345288     eV
Final free energy (E-TS)    =  -14350.90345288     eV
(energies not corrected for finite basis set)
 
NB est. 0K energy (E-0.5TS)      =  -14350.90345288     eV
 
 
 *********************************** Forces ***********************************
 *                                                                            *
 *                        Cartesian components (eV/A)                         *
 * -------------------------------------------------------------------------- *
 *                   x                    y                    z              *
 *                                                                            *
 * O         1      0.00000              1.47695              0.00000         *
 * O         2      0.00000             -1.47695              0.00000         *
 * O         3      0.00000              1.47695              0.00000         *
 * O         4      0.00000             -1.47695              0.00000         *
 * O         5      0.00000             -1.55558              0.00000         *
 * O         6      0.00000              1.55558              0.00000         *
 * O         7      0.00000             -1.55558              0.00000         *
 * O         8      0.00000              1.55558              0.00000         *
 * Mg        1      0.00000              0.47480              0.00000         *
 * Mg        2      0.00000             -0.47480              0.00000         *
 * Mg        3      0.00000              0.47480              0.00000         *
 * Mg        4      0.00000             -0.47480              0.00000         *
 * Ca        1      0.00000             -0.60689              0.00000         *
 * Ca        2      0.00000              0.60689              0.00000         *
 * Ca        3      0.00000             -0.60689              0.00000         *
 * Ca        4      0.00000              0.60689              0.00000         *
 *                                                                            *
 ******************************************************************************
 
 ***************** Stress Tensor *****************
 *                                               *
 *          Cartesian components (GPa)           *
 * --------------------------------------------- *
 *             x             y             z     *
 *                                               *
 *  x    -29.869567      0.000000      0.000000  *
 *  y      0.000000    -28.719310      0.000000  *
 *  z      0.000000      0.000000    -29.869567  *
 *                                               *
 *  Pressure:   29.4861                          *
 *                                               *
 *************************************************
  
 +------------+-------------+-------------+-----------------+ <-- min BFGS
 |    Step    |   lambda    |   F.delta'  |    enthalpy     | <-- min BFGS
 +------------+-------------+-------------+-----------------+ <-- min BFGS
 |  previous  |    0.000000 |    3.357542 |   -14347.129154 | <-- min BFGS
 | trial step |    0.855988 |    1.913360 |   -14350.883057 | <-- min BFGS
 +------------+-------------+-------------+-----------------+ <-- min BFGS
  

--------------------------------------------------------------------------------
 BFGS: improving iteration         1 with line minimization (lambda=  1.283982)
--------------------------------------------------------------------------------
 
+---------------- MEMORY AND SCRATCH DISK ESTIMATES PER PROCESS --------------+
|                                                     Memory          Disk    |
| Model and support data                              398.8 MB         0.0 MB |
| Electronic energy minimisation requirements          28.4 MB         0.0 MB |
| Geometry minimisation requirements                   34.5 MB         0.0 MB |
|                                               ----------------------------- |
| Approx. total storage required per process          461.7 MB         0.0 MB |
|                                                                             |
| Requirements will fluctuate during execution and may exceed these estimates |
+-----------------------------------------------------------------------------+
 
 
                           -------------------------------
                                      Unit Cell
                           -------------------------------
        Real Lattice(A)              Reciprocal Lattice(1/A)
   4.4004818   0.0000000   0.0000000        1.4278403   0.0000000   0.0000000
   0.0000000   8.7968829   0.0000000        0.0000000   0.7142513   0.0000000
   0.0000000   0.0000000   4.4004818        0.0000000   0.0000000   1.4278403
 
                       Lattice parameters(A)       Cell Angles
                    a =    4.400482          alpha =   90.000000
                    b =    8.796883          beta  =   90.000000
                    c =    4.400482          gamma =   90.000000
 
                Current cell volume =  170.344949 A**3
 
                           -------------------------------
                                     Cell Contents
                           -------------------------------
 
            xxxxxxxxxxxxxxxxxxxxxxxxxxxxxxxxxxxxxxxxxxxxxxxxxxxxxxxxxxxx
            x  Element    Atom        Fractional coordinates of atoms  x
            x            Number           u          v          w      x
            x----------------------------------------------------------x
            x  O            1         0.500000   0.751270   0.500000   x
            x  O            2         0.500000   0.498730   0.000000   x
            x  O            3         0.000000   0.751270   0.000000   x
            x  O            4         0.000000   0.498730   0.500000   x
            x  O            5         0.500000   0.248655   0.500000   x
            x  O            6         0.500000   0.001345   0.000000   x
            x  O            7         0.000000   0.248655   0.000000   x
            x  O            8         0.000000   0.001345   0.500000   x
            x  Mg           1         0.000000   0.000307   0.000000   x
            x  Mg           2         0.000000   0.249693   0.500000   x
            x  Mg           3         0.500000   0.000307   0.500000   x
            x  Mg           4         0.500000   0.249693   0.000000   x
            x  Ca           1         0.000000   0.499564   0.000000   x
            x  Ca           2         0.000000   0.750436   0.500000   x
            x  Ca           3         0.500000   0.499564   0.500000   x
            x  Ca           4         0.500000   0.750436   0.000000   x
            xxxxxxxxxxxxxxxxxxxxxxxxxxxxxxxxxxxxxxxxxxxxxxxxxxxxxxxxxxxx
 
 
------------------------------------------------------------------------ <-- SCF
SCF loop      Energy           Fermi           Energy gain       Timer   <-- SCF
                               energy          per atom          (sec)   <-- SCF
------------------------------------------------------------------------ <-- SCF
Initial  -1.43476422E+004  0.00000000E+000                        71.38  <-- SCF
      1  -1.43545400E+004  9.29952068E+000   4.31111145E-001      72.47  <-- SCF
      2  -1.43545952E+004  9.29564181E+000   3.44774638E-003      74.31  <-- SCF
      3  -1.43531620E+004  9.92291616E+000  -8.95721690E-002      75.85  <-- SCF
      4  -1.43520640E+004  9.70884354E+000  -6.86278033E-002      77.49  <-- SCF
      5  -1.43520026E+004  9.78255140E+000  -3.83715304E-003      79.08  <-- SCF
      6  -1.43520000E+004  9.80672399E+000  -1.60260998E-004      80.76  <-- SCF
      7  -1.43519988E+004  9.79988610E+000  -7.84327332E-005      82.37  <-- SCF
      8  -1.43519984E+004  9.79295168E+000  -2.00627322E-005      83.99  <-- SCF
      9  -1.43519984E+004  9.79043641E+000  -5.28744011E-007      85.51  <-- SCF
     10  -1.43519984E+004  9.79025421E+000  -6.84956467E-009      86.72  <-- SCF
     11  -1.43519984E+004  9.79021437E+000   4.70803647E-009      87.92  <-- SCF
------------------------------------------------------------------------ <-- SCF
 
Final energy, E             =  -14351.99843886     eV
Final free energy (E-TS)    =  -14351.99843886     eV
(energies not corrected for finite basis set)
 
NB est. 0K energy (E-0.5TS)      =  -14351.99843886     eV
 
 
 *********************************** Forces ***********************************
 *                                                                            *
 *                        Cartesian components (eV/A)                         *
 * -------------------------------------------------------------------------- *
 *                   x                    y                    z              *
 *                                                                            *
 * O         1      0.00000              1.25498              0.00000         *
 * O         2      0.00000             -1.25498              0.00000         *
 * O         3      0.00000              1.25498              0.00000         *
 * O         4      0.00000             -1.25498              0.00000         *
 * O         5      0.00000             -1.31857              0.00000         *
 * O         6      0.00000              1.31857              0.00000         *
 * O         7      0.00000             -1.31857              0.00000         *
 * O         8      0.00000              1.31857              0.00000         *
 * Mg        1      0.00000              0.47019              0.00000         *
 * Mg        2      0.00000             -0.47019              0.00000         *
 * Mg        3      0.00000              0.47019              0.00000         *
 * Mg        4      0.00000             -0.47019              0.00000         *
 * Ca        1      0.00000             -0.57648              0.00000         *
 * Ca        2      0.00000              0.57648              0.00000         *
 * Ca        3      0.00000             -0.57648              0.00000         *
 * Ca        4      0.00000              0.57648              0.00000         *
 *                                                                            *
 ******************************************************************************
 
 ***************** Stress Tensor *****************
 *                                               *
 *          Cartesian components (GPa)           *
 * --------------------------------------------- *
 *             x             y             z     *
 *                                               *
 *  x    -19.844424      0.000000      0.000000  *
 *  y      0.000000    -18.390374      0.000000  *
 *  z      0.000000      0.000000    -19.844424  *
 *                                               *
 *  Pressure:   19.3597                          *
 *                                               *
 *************************************************
  
 +------------+-------------+-------------+-----------------+ <-- min BFGS
 |    Step    |   lambda    |   F.delta'  |    enthalpy     | <-- min BFGS
 +------------+-------------+-------------+-----------------+ <-- min BFGS
 |  previous  |    0.000000 |    3.357542 |   -14347.129154 | <-- min BFGS
 | trial step |    0.855988 |    1.913360 |   -14350.883057 | <-- min BFGS
 |  line step |    1.283982 |    1.308494 |   -14352.007279 | <-- min BFGS
 +------------+-------------+-------------+-----------------+ <-- min BFGS
  
 BFGS: finished iteration     1 with enthalpy= -1.43520073E+004 eV
  
 +-----------+-----------------+-----------------+------------+-----+ <-- BFGS
 | Parameter |      value      |    tolerance    |    units   | OK? | <-- BFGS
 +-----------+-----------------+-----------------+------------+-----+ <-- BFGS
 |  dE/ion   |   3.048828E-001 |   2.000000E-005 |         eV | No  | <-- BFGS
 |  |F|max   |   1.318571E+000 |   5.000000E-002 |       eV/A | No  | <-- BFGS
 |  |dR|max  |   1.183598E-002 |   1.000000E-003 |          A | No  | <-- BFGS
 |   Smax    |   1.984442E+001 |   1.000000E-001 |        GPa | No  | <-- BFGS
 +-----------+-----------------+-----------------+------------+-----+ <-- BFGS
  

================================================================================
 Starting BFGS iteration          2 ...
================================================================================
  
 +------------+-------------+-------------+-----------------+ <-- min BFGS
 |    Step    |   lambda    |   F.delta'  |    enthalpy     | <-- min BFGS
 +------------+-------------+-------------+-----------------+ <-- min BFGS
 |  previous  |    0.000000 |    1.340756 |   -14352.007279 | <-- min BFGS
 +------------+-------------+-------------+-----------------+ <-- min BFGS
  

--------------------------------------------------------------------------------
 BFGS: starting iteration         2 with trial guess (lambda=  1.000000)
--------------------------------------------------------------------------------
 
+---------------- MEMORY AND SCRATCH DISK ESTIMATES PER PROCESS --------------+
|                                                     Memory          Disk    |
| Model and support data                              400.6 MB         0.0 MB |
| Electronic energy minimisation requirements          30.2 MB         0.0 MB |
| Geometry minimisation requirements                   36.7 MB         0.0 MB |
|                                               ----------------------------- |
| Approx. total storage required per process          467.5 MB         0.0 MB |
|                                                                             |
| Requirements will fluctuate during execution and may exceed these estimates |
+-----------------------------------------------------------------------------+
 
 
                           -------------------------------
                                      Unit Cell
                           -------------------------------
        Real Lattice(A)              Reciprocal Lattice(1/A)
   4.5296462   0.0000000   0.0000000        1.3871250   0.0000000   0.0000000
   0.0000000   9.0400622   0.0000000        0.0000000   0.6950378   0.0000000
   0.0000000   0.0000000   4.5296462        0.0000000   0.0000000   1.3871250
 
                       Lattice parameters(A)       Cell Angles
                    a =    4.529646          alpha =   90.000000
                    b =    9.040062          beta  =   90.000000
                    c =    4.529646          gamma =   90.000000
 
                Current cell volume =  185.481240 A**3
 
                           -------------------------------
                                     Cell Contents
                           -------------------------------
 
            xxxxxxxxxxxxxxxxxxxxxxxxxxxxxxxxxxxxxxxxxxxxxxxxxxxxxxxxxxxx
            x  Element    Atom        Fractional coordinates of atoms  x
            x            Number           u          v          w      x
            x----------------------------------------------------------x
            x  O            1         0.500000   0.752495   0.500000   x
            x  O            2         0.500000   0.497505   0.000000   x
            x  O            3         0.000000   0.752495   0.000000   x
            x  O            4         0.000000   0.497505   0.500000   x
            x  O            5         0.500000   0.247365   0.500000   x
            x  O            6         0.500000   0.002635   0.000000   x
            x  O            7         0.000000   0.247365   0.000000   x
            x  O            8         0.000000   0.002635   0.500000   x
            x  Mg           1         0.000000   0.000741   0.000000   x
            x  Mg           2         0.000000   0.249259   0.500000   x
            x  Mg           3         0.500000   0.000741   0.500000   x
            x  Mg           4         0.500000   0.249259   0.000000   x
            x  Ca           1         0.000000   0.499023   0.000000   x
            x  Ca           2         0.000000   0.750977   0.500000   x
            x  Ca           3         0.500000   0.499023   0.500000   x
            x  Ca           4         0.500000   0.750977   0.000000   x
            xxxxxxxxxxxxxxxxxxxxxxxxxxxxxxxxxxxxxxxxxxxxxxxxxxxxxxxxxxxx
 
 
------------------------------------------------------------------------ <-- SCF
SCF loop      Energy           Fermi           Energy gain       Timer   <-- SCF
                               energy          per atom          (sec)   <-- SCF
------------------------------------------------------------------------ <-- SCF
Initial  -1.43377539E+004  0.00000000E+000                       103.62  <-- SCF
      1  -1.43629777E+004  7.18539118E+000   1.57649082E+000     104.73  <-- SCF
      2  -1.43632095E+004  7.18178062E+000   1.44879163E-002     106.54  <-- SCF
      3  -1.43579805E+004  8.78996300E+000  -3.26812641E-001     108.10  <-- SCF
      4  -1.43534373E+004  8.13999135E+000  -2.83952394E-001     109.77  <-- SCF
      5  -1.43531115E+004  8.35613117E+000  -2.03629922E-002     111.42  <-- SCF
      6  -1.43530770E+004  8.50376018E+000  -2.15564938E-003     113.11  <-- SCF
      7  -1.43530649E+004  8.54501445E+000  -7.55910674E-004     114.74  <-- SCF
      8  -1.43530612E+004  8.56203600E+000  -2.27747602E-004     116.36  <-- SCF
      9  -1.43530612E+004  8.56630560E+000  -2.99016213E-006     117.96  <-- SCF
     10  -1.43530612E+004  8.56594009E+000   6.35557854E-008     119.40  <-- SCF
     11  -1.43530612E+004  8.56557492E+000   3.71130551E-008     120.62  <-- SCF
     12  -1.43530612E+004  8.56554552E+000   2.92188284E-009     121.78  <-- SCF
------------------------------------------------------------------------ <-- SCF
 
Final energy, E             =  -14353.06118797     eV
Final free energy (E-TS)    =  -14353.06118797     eV
(energies not corrected for finite basis set)
 
NB est. 0K energy (E-0.5TS)      =  -14353.06118797     eV
 
 
 *********************************** Forces ***********************************
 *                                                                            *
 *                        Cartesian components (eV/A)                         *
 * -------------------------------------------------------------------------- *
 *                   x                    y                    z              *
 *                                                                            *
 * O         1      0.00000              0.87221              0.00000         *
 * O         2      0.00000             -0.87221              0.00000         *
 * O         3      0.00000              0.87221              0.00000         *
 * O         4      0.00000             -0.87221              0.00000         *
 * O         5      0.00000             -0.91664              0.00000         *
 * O         6      0.00000              0.91664              0.00000         *
 * O         7      0.00000             -0.91664              0.00000         *
 * O         8      0.00000              0.91664              0.00000         *
 * Mg        1      0.00000              0.47677              0.00000         *
 * Mg        2      0.00000             -0.47677              0.00000         *
 * Mg        3      0.00000              0.47677              0.00000         *
 * Mg        4      0.00000             -0.47677              0.00000         *
 * Ca        1      0.00000             -0.52788              0.00000         *
 * Ca        2      0.00000              0.52788              0.00000         *
 * Ca        3      0.00000             -0.52788              0.00000         *
 * Ca        4      0.00000              0.52788              0.00000         *
 *                                                                            *
 ******************************************************************************
 
 ***************** Stress Tensor *****************
 *                                               *
 *          Cartesian components (GPa)           *
 * --------------------------------------------- *
 *             x             y             z     *
 *                                               *
 *  x     -5.226231      0.000000      0.000000  *
 *  y      0.000000     -3.801446      0.000000  *
 *  z      0.000000      0.000000     -5.226231  *
 *                                               *
 *  Pressure:    4.7513                          *
 *                                               *
 *************************************************
  
 +------------+-------------+-------------+-----------------+ <-- min BFGS
 |    Step    |   lambda    |   F.delta'  |    enthalpy     | <-- min BFGS
 +------------+-------------+-------------+-----------------+ <-- min BFGS
 |  previous  |    0.000000 |    1.340756 |   -14352.007279 | <-- min BFGS
 | trial step |    1.000000 |    0.394709 |   -14353.076327 | <-- min BFGS
 +------------+-------------+-------------+-----------------+ <-- min BFGS
  
 BFGS: finished iteration     2 with enthalpy= -1.43530763E+004 eV
  
 +-----------+-----------------+-----------------+------------+-----+ <-- BFGS
 | Parameter |      value      |    tolerance    |    units   | OK? | <-- BFGS
 +-----------+-----------------+-----------------+------------+-----+ <-- BFGS
 |  dE/ion   |   6.681547E-002 |   2.000000E-005 |         eV | No  | <-- BFGS
 |  |F|max   |   9.166387E-001 |   5.000000E-002 |       eV/A | No  | <-- BFGS
 |  |dR|max  |   1.165509E-002 |   1.000000E-003 |          A | No  | <-- BFGS
 |   Smax    |   5.226231E+000 |   1.000000E-001 |        GPa | No  | <-- BFGS
 +-----------+-----------------+-----------------+------------+-----+ <-- BFGS
  

================================================================================
 Starting BFGS iteration          3 ...
================================================================================
  
 +------------+-------------+-------------+-----------------+ <-- min BFGS
 |    Step    |   lambda    |   F.delta'  |    enthalpy     | <-- min BFGS
 +------------+-------------+-------------+-----------------+ <-- min BFGS
 |  previous  |    0.000000 |    0.455440 |   -14353.076327 | <-- min BFGS
 +------------+-------------+-------------+-----------------+ <-- min BFGS
  

--------------------------------------------------------------------------------
 BFGS: starting iteration         3 with trial guess (lambda=  1.000000)
--------------------------------------------------------------------------------
 
+---------------- MEMORY AND SCRATCH DISK ESTIMATES PER PROCESS --------------+
|                                                     Memory          Disk    |
| Model and support data                              401.3 MB         0.0 MB |
| Electronic energy minimisation requirements          30.9 MB         0.0 MB |
| Geometry minimisation requirements                   37.7 MB         0.0 MB |
|                                               ----------------------------- |
| Approx. total storage required per process          469.9 MB         0.0 MB |
|                                                                             |
| Requirements will fluctuate during execution and may exceed these estimates |
+-----------------------------------------------------------------------------+
 
 
                           -------------------------------
                                      Unit Cell
                           -------------------------------
        Real Lattice(A)              Reciprocal Lattice(1/A)
   4.5841040   0.0000000   0.0000000        1.3706463   0.0000000   0.0000000
   0.0000000   9.1331440   0.0000000        0.0000000   0.6879543   0.0000000
   0.0000000   0.0000000   4.5841040        0.0000000   0.0000000   1.3706463
 
                       Lattice parameters(A)       Cell Angles
                    a =    4.584104          alpha =   90.000000
                    b =    9.133144          beta  =   90.000000
                    c =    4.584104          gamma =   90.000000
 
                Current cell volume =  191.923973 A**3
 
                           -------------------------------
                                     Cell Contents
                           -------------------------------
 
            xxxxxxxxxxxxxxxxxxxxxxxxxxxxxxxxxxxxxxxxxxxxxxxxxxxxxxxxxxxx
            x  Element    Atom        Fractional coordinates of atoms  x
            x            Number           u          v          w      x
            x----------------------------------------------------------x
            x  O            1         0.500000   0.753401   0.500000   x
            x  O            2         0.500000   0.496599   0.000000   x
            x  O            3         0.000000   0.753401   0.000000   x
            x  O            4         0.000000   0.496599   0.500000   x
            x  O            5         0.500000   0.246413   0.500000   x
            x  O            6         0.500000   0.003587   0.000000   x
            x  O            7         0.000000   0.246413   0.000000   x
            x  O            8         0.000000   0.003587   0.500000   x
            x  Mg           1         0.000000   0.001180   0.000000   x
            x  Mg           2         0.000000   0.248820   0.500000   x
            x  Mg           3         0.500000   0.001180   0.500000   x
            x  Mg           4         0.500000   0.248820   0.000000   x
            x  Ca           1         0.000000   0.498523   0.000000   x
            x  Ca           2         0.000000   0.751477   0.500000   x
            x  Ca           3         0.500000   0.498523   0.500000   x
            x  Ca           4         0.500000   0.751477   0.000000   x
            xxxxxxxxxxxxxxxxxxxxxxxxxxxxxxxxxxxxxxxxxxxxxxxxxxxxxxxxxxxx
 
 
------------------------------------------------------------------------ <-- SCF
SCF loop      Energy           Fermi           Energy gain       Timer   <-- SCF
                               energy          per atom          (sec)   <-- SCF
------------------------------------------------------------------------ <-- SCF
Initial  -1.43497943E+004  0.00000000E+000                       137.75  <-- SCF
      1  -1.43553602E+004  7.27144584E+000   3.47873354E-001     139.02  <-- SCF
      2  -1.43554057E+004  7.27001799E+000   2.84279090E-003     140.89  <-- SCF
      3  -1.43541598E+004  8.07755075E+000  -7.78699424E-002     142.50  <-- SCF
      4  -1.43532996E+004  7.81467387E+000  -5.37648799E-002     144.26  <-- SCF
      5  -1.43532028E+004  7.95454675E+000  -6.04910379E-003     145.97  <-- SCF
      6  -1.43531775E+004  8.06382812E+000  -1.57812211E-003     147.66  <-- SCF
      7  -1.43531748E+004  8.08178798E+000  -1.72259895E-004     149.37  <-- SCF
      8  -1.43531743E+004  8.09202257E+000  -2.95364890E-005     151.01  <-- SCF
      9  -1.43531743E+004  8.09317885E+000  -2.87682451E-006     152.60  <-- SCF
     10  -1.43531743E+004  8.09307225E+000   5.09417279E-008     153.99  <-- SCF
     11  -1.43531743E+004  8.09288101E+000  -1.14481659E-009     155.24  <-- SCF
------------------------------------------------------------------------ <-- SCF
 
Final energy, E             =  -14353.17425994     eV
Final free energy (E-TS)    =  -14353.17425994     eV
(energies not corrected for finite basis set)
 
NB est. 0K energy (E-0.5TS)      =  -14353.17425994     eV
 
 
 *********************************** Forces ***********************************
 *                                                                            *
 *                        Cartesian components (eV/A)                         *
 * -------------------------------------------------------------------------- *
 *                   x                    y                    z              *
 *                                                                            *
 * O         1      0.00000              0.71749              0.00000         *
 * O         2      0.00000             -0.71749              0.00000         *
 * O         3      0.00000              0.71749              0.00000         *
 * O         4      0.00000             -0.71749              0.00000         *
 * O         5      0.00000             -0.75699              0.00000         *
 * O         6      0.00000              0.75699              0.00000         *
 * O         7      0.00000             -0.75699              0.00000         *
 * O         8      0.00000              0.75699              0.00000         *
 * Mg        1      0.00000              0.48595              0.00000         *
 * Mg        2      0.00000             -0.48595              0.00000         *
 * Mg        3      0.00000              0.48595              0.00000         *
 * Mg        4      0.00000             -0.48595              0.00000         *
 * Ca        1      0.00000             -0.50604              0.00000         *
 * Ca        2      0.00000              0.50604              0.00000         *
 * Ca        3      0.00000             -0.50604              0.00000         *
 * Ca        4      0.00000              0.50604              0.00000         *
 *                                                                            *
 ******************************************************************************
 
 ***************** Stress Tensor *****************
 *                                               *
 *          Cartesian components (GPa)           *
 * --------------------------------------------- *
 *             x             y             z     *
 *                                               *
 *  x     -0.569197      0.000000      0.000000  *
 *  y      0.000000      0.812390      0.000000  *
 *  z      0.000000      0.000000     -0.569197  *
 *                                               *
 *  Pressure:    0.1087                          *
 *                                               *
 *************************************************
  
 +------------+-------------+-------------+-----------------+ <-- min BFGS
 |    Step    |   lambda    |   F.delta'  |    enthalpy     | <-- min BFGS
 +------------+-------------+-------------+-----------------+ <-- min BFGS
 |  previous  |    0.000000 |    0.455440 |   -14353.076327 | <-- min BFGS
 | trial step |    1.000000 |    0.124694 |   -14353.190577 | <-- min BFGS
 +------------+-------------+-------------+-----------------+ <-- min BFGS
  
 BFGS: finished iteration     3 with enthalpy= -1.43531906E+004 eV
  
 +-----------+-----------------+-----------------+------------+-----+ <-- BFGS
 | Parameter |      value      |    tolerance    |    units   | OK? | <-- BFGS
 +-----------+-----------------+-----------------+------------+-----+ <-- BFGS
 |  dE/ion   |   7.140639E-003 |   2.000000E-005 |         eV | No  | <-- BFGS
 |  |F|max   |   7.569884E-001 |   5.000000E-002 |       eV/A | No  | <-- BFGS
 |  |dR|max  |   8.697037E-003 |   1.000000E-003 |          A | No  | <-- BFGS
 |   Smax    |   8.123895E-001 |   1.000000E-001 |        GPa | No  | <-- BFGS
 +-----------+-----------------+-----------------+------------+-----+ <-- BFGS
  

================================================================================
 Starting BFGS iteration          4 ...
================================================================================
  
 +------------+-------------+-------------+-----------------+ <-- min BFGS
 |    Step    |   lambda    |   F.delta'  |    enthalpy     | <-- min BFGS
 +------------+-------------+-------------+-----------------+ <-- min BFGS
 |  previous  |    0.000000 |    0.286740 |   -14353.190577 | <-- min BFGS
 +------------+-------------+-------------+-----------------+ <-- min BFGS
  

--------------------------------------------------------------------------------
 BFGS: starting iteration         4 with trial guess (lambda=  1.000000)
--------------------------------------------------------------------------------
 
+---------------- MEMORY AND SCRATCH DISK ESTIMATES PER PROCESS --------------+
|                                                     Memory          Disk    |
| Model and support data                              401.6 MB         0.0 MB |
| Electronic energy minimisation requirements          31.2 MB         0.0 MB |
| Geometry minimisation requirements                   38.1 MB         0.0 MB |
|                                               ----------------------------- |
| Approx. total storage required per process          471.0 MB         0.0 MB |
|                                                                             |
| Requirements will fluctuate during execution and may exceed these estimates |
+-----------------------------------------------------------------------------+
 
 
                           -------------------------------
                                      Unit Cell
                           -------------------------------
        Real Lattice(A)              Reciprocal Lattice(1/A)
   4.6050632   0.0000000   0.0000000        1.3644081   0.0000000   0.0000000
   0.0000000   9.1585130   0.0000000        0.0000000   0.6860486   0.0000000
   0.0000000   0.0000000   4.6050632        0.0000000   0.0000000   1.3644081
 
                       Lattice parameters(A)       Cell Angles
                    a =    4.605063          alpha =   90.000000
                    b =    9.158513          beta  =   90.000000
                    c =    4.605063          gamma =   90.000000
 
                Current cell volume =  194.220986 A**3
 
                           -------------------------------
                                     Cell Contents
                           -------------------------------
 
            xxxxxxxxxxxxxxxxxxxxxxxxxxxxxxxxxxxxxxxxxxxxxxxxxxxxxxxxxxxx
            x  Element    Atom        Fractional coordinates of atoms  x
            x            Number           u          v          w      x
            x----------------------------------------------------------x
            x  O            1         0.500000   0.754167   0.500000   x
            x  O            2         0.500000   0.495833   0.000000   x
            x  O            3         0.000000   0.754167   0.000000   x
            x  O            4         0.000000   0.495833   0.500000   x
            x  O            5         0.500000   0.245606   0.500000   x
            x  O            6         0.500000   0.004394   0.000000   x
            x  O            7         0.000000   0.245606   0.000000   x
            x  O            8         0.000000   0.004394   0.500000   x
            x  Mg           1         0.000000   0.001641   0.000000   x
            x  Mg           2         0.000000   0.248359   0.500000   x
            x  Mg           3         0.500000   0.001641   0.500000   x
            x  Mg           4         0.500000   0.248359   0.000000   x
            x  Ca           1         0.000000   0.498029   0.000000   x
            x  Ca           2         0.000000   0.751971   0.500000   x
            x  Ca           3         0.500000   0.498029   0.500000   x
            x  Ca           4         0.500000   0.751971   0.000000   x
            xxxxxxxxxxxxxxxxxxxxxxxxxxxxxxxxxxxxxxxxxxxxxxxxxxxxxxxxxxxx
 
 
------------------------------------------------------------------------ <-- SCF
SCF loop      Energy           Fermi           Energy gain       Timer   <-- SCF
                               energy          per atom          (sec)   <-- SCF
------------------------------------------------------------------------ <-- SCF
Initial  -1.43521008E+004  0.00000000E+000                       171.85  <-- SCF
      1  -1.43540223E+004  7.36744818E+000   1.20093159E-001     173.20  <-- SCF
      2  -1.43540341E+004  7.36673213E+000   7.39845710E-004     175.07  <-- SCF
      3  -1.43534390E+004  7.80845885E+000  -3.71992819E-002     176.81  <-- SCF
      4  -1.43533034E+004  7.72516848E+000  -8.47023010E-003     178.75  <-- SCF
      5  -1.43532456E+004  7.84795500E+000  -3.61585076E-003     180.54  <-- SCF
      6  -1.43532277E+004  7.92006554E+000  -1.11820276E-003     182.24  <-- SCF
      7  -1.43532262E+004  7.94709804E+000  -9.47100375E-005     184.00  <-- SCF
      8  -1.43532261E+004  7.94676167E+000  -3.00796759E-006     185.58  <-- SCF
      9  -1.43532261E+004  7.94828550E+000  -1.69828659E-006     187.12  <-- SCF
     10  -1.43532261E+004  7.94833057E+000   8.59256291E-008     188.39  <-- SCF
     11  -1.43532261E+004  7.94824841E+000   6.03440731E-009     189.56  <-- SCF
------------------------------------------------------------------------ <-- SCF
 
Final energy, E             =  -14353.22609662     eV
Final free energy (E-TS)    =  -14353.22609662     eV
(energies not corrected for finite basis set)
 
NB est. 0K energy (E-0.5TS)      =  -14353.22609662     eV
 
 
 *********************************** Forces ***********************************
 *                                                                            *
 *                        Cartesian components (eV/A)                         *
 * -------------------------------------------------------------------------- *
 *                   x                    y                    z              *
 *                                                                            *
 * O         1      0.00000              0.64375              0.00000         *
 * O         2      0.00000             -0.64375              0.00000         *
 * O         3      0.00000              0.64375              0.00000         *
 * O         4      0.00000             -0.64375              0.00000         *
 * O         5      0.00000             -0.68098              0.00000         *
 * O         6      0.00000              0.68098              0.00000         *
 * O         7      0.00000             -0.68098              0.00000         *
 * O         8      0.00000              0.68098              0.00000         *
 * Mg        1      0.00000              0.49124              0.00000         *
 * Mg        2      0.00000             -0.49124              0.00000         *
 * Mg        3      0.00000              0.49124              0.00000         *
 * Mg        4      0.00000             -0.49124              0.00000         *
 * Ca        1      0.00000             -0.48764              0.00000         *
 * Ca        2      0.00000              0.48764              0.00000         *
 * Ca        3      0.00000             -0.48764              0.00000         *
 * Ca        4      0.00000              0.48764              0.00000         *
 *                                                                            *
 ******************************************************************************
 
 ***************** Stress Tensor *****************
 *                                               *
 *          Cartesian components (GPa)           *
 * --------------------------------------------- *
 *             x             y             z     *
 *                                               *
 *  x      0.845998      0.000000      0.000000  *
 *  y      0.000000      2.253687      0.000000  *
 *  z      0.000000      0.000000      0.845998  *
 *                                               *
 *  Pressure:   -1.3152                          *
 *                                               *
 *************************************************
  
 +------------+-------------+-------------+-----------------+ <-- min BFGS
 |    Step    |   lambda    |   F.delta'  |    enthalpy     | <-- min BFGS
 +------------+-------------+-------------+-----------------+ <-- min BFGS
 |  previous  |    0.000000 |    0.286740 |   -14353.190577 | <-- min BFGS
 | trial step |    1.000000 |    0.174178 |   -14353.219559 | <-- min BFGS
 +------------+-------------+-------------+-----------------+ <-- min BFGS
  

--------------------------------------------------------------------------------
 BFGS: improving iteration         4 with line minimization (lambda=  2.547391)
--------------------------------------------------------------------------------
 
+---------------- MEMORY AND SCRATCH DISK ESTIMATES PER PROCESS --------------+
|                                                     Memory          Disk    |
| Model and support data                              401.8 MB         0.0 MB |
| Electronic energy minimisation requirements          31.6 MB         0.0 MB |
| Geometry minimisation requirements                   38.6 MB         0.0 MB |
|                                               ----------------------------- |
| Approx. total storage required per process          472.0 MB         0.0 MB |
|                                                                             |
| Requirements will fluctuate during execution and may exceed these estimates |
+-----------------------------------------------------------------------------+
 
 
                           -------------------------------
                                      Unit Cell
                           -------------------------------
        Real Lattice(A)              Reciprocal Lattice(1/A)
   4.6374953   0.0000000   0.0000000        1.3548661   0.0000000   0.0000000
   0.0000000   9.1977689   0.0000000        0.0000000   0.6831206   0.0000000
   0.0000000   0.0000000   4.6374953        0.0000000   0.0000000   1.3548661
 
                       Lattice parameters(A)       Cell Angles
                    a =    4.637495          alpha =   90.000000
                    b =    9.197769          beta  =   90.000000
                    c =    4.637495          gamma =   90.000000
 
                Current cell volume =  197.810550 A**3
 
                           -------------------------------
                                     Cell Contents
                           -------------------------------
 
            xxxxxxxxxxxxxxxxxxxxxxxxxxxxxxxxxxxxxxxxxxxxxxxxxxxxxxxxxxxx
            x  Element    Atom        Fractional coordinates of atoms  x
            x            Number           u          v          w      x
            x----------------------------------------------------------x
            x  O            1         0.500000   0.755351   0.500000   x
            x  O            2         0.500000   0.494649   0.000000   x
            x  O            3         0.000000   0.755351   0.000000   x
            x  O            4         0.000000   0.494649   0.500000   x
            x  O            5         0.500000   0.244357   0.500000   x
            x  O            6         0.500000   0.005643   0.000000   x
            x  O            7         0.000000   0.244357   0.000000   x
            x  O            8         0.000000   0.005643   0.500000   x
            x  Mg           1         0.000000   0.002355   0.000000   x
            x  Mg           2         0.000000   0.247645   0.500000   x
            x  Mg           3         0.500000   0.002355   0.500000   x
            x  Mg           4         0.500000   0.247645   0.000000   x
            x  Ca           1         0.000000   0.497264   0.000000   x
            x  Ca           2         0.000000   0.752736   0.500000   x
            x  Ca           3         0.500000   0.497264   0.500000   x
            x  Ca           4         0.500000   0.752736   0.000000   x
            xxxxxxxxxxxxxxxxxxxxxxxxxxxxxxxxxxxxxxxxxxxxxxxxxxxxxxxxxxxx
 
 
------------------------------------------------------------------------ <-- SCF
SCF loop      Energy           Fermi           Energy gain       Timer   <-- SCF
                               energy          per atom          (sec)   <-- SCF
------------------------------------------------------------------------ <-- SCF
Initial  -1.43507095E+004  0.00000000E+000                       205.38  <-- SCF
      1  -1.43551514E+004  6.81505755E+000   2.77620922E-001     206.70  <-- SCF
      2  -1.43551796E+004  6.81341959E+000   1.75832052E-003     208.54  <-- SCF
      3  -1.43537546E+004  7.51034325E+000  -8.90631565E-002     210.20  <-- SCF
      4  -1.43534335E+004  7.37825142E+000  -2.00648640E-002     211.91  <-- SCF
      5  -1.43532921E+004  7.57162411E+000  -8.83868281E-003     213.61  <-- SCF
      6  -1.43532486E+004  7.68415218E+000  -2.72104432E-003     215.31  <-- SCF
      7  -1.43532447E+004  7.72467786E+000  -2.42705826E-004     217.10  <-- SCF
      8  -1.43532447E+004  7.72471935E+000  -1.82031193E-006     218.77  <-- SCF
      9  -1.43532446E+004  7.72712189E+000  -5.14176495E-006     220.34  <-- SCF
     10  -1.43532446E+004  7.72719772E+000   2.19498327E-007     221.75  <-- SCF
     11  -1.43532446E+004  7.72702831E+000   1.16894648E-008     222.96  <-- SCF
     12  -1.43532446E+004  7.72700127E+000   1.11542761E-009     224.13  <-- SCF
------------------------------------------------------------------------ <-- SCF
 
Final energy, E             =  -14353.24457858     eV
Final free energy (E-TS)    =  -14353.24457858     eV
(energies not corrected for finite basis set)
 
NB est. 0K energy (E-0.5TS)      =  -14353.24457858     eV
 
 
 *********************************** Forces ***********************************
 *                                                                            *
 *                        Cartesian components (eV/A)                         *
 * -------------------------------------------------------------------------- *
 *                   x                    y                    z              *
 *                                                                            *
 * O         1      0.00000              0.54191              0.00000         *
 * O         2      0.00000             -0.54191              0.00000         *
 * O         3      0.00000              0.54191              0.00000         *
 * O         4      0.00000             -0.54191              0.00000         *
 * O         5      0.00000             -0.57112              0.00000         *
 * O         6      0.00000              0.57112              0.00000         *
 * O         7      0.00000             -0.57112              0.00000         *
 * O         8      0.00000              0.57112              0.00000         *
 * Mg        1      0.00000              0.49902              0.00000         *
 * Mg        2      0.00000             -0.49902              0.00000         *
 * Mg        3      0.00000              0.49902              0.00000         *
 * Mg        4      0.00000             -0.49902              0.00000         *
 * Ca        1      0.00000             -0.46796              0.00000         *
 * Ca        2      0.00000              0.46796              0.00000         *
 * Ca        3      0.00000             -0.46796              0.00000         *
 * Ca        4      0.00000              0.46796              0.00000         *
 *                                                                            *
 ******************************************************************************
 
 ***************** Stress Tensor *****************
 *                                               *
 *          Cartesian components (GPa)           *
 * --------------------------------------------- *
 *             x             y             z     *
 *                                               *
 *  x      2.899752      0.000000      0.000000  *
 *  y      0.000000      4.408230      0.000000  *
 *  z      0.000000      0.000000      2.899752  *
 *                                               *
 *  Pressure:   -3.4026                          *
 *                                               *
 *************************************************
  
 +------------+-------------+-------------+-----------------+ <-- min BFGS
 |    Step    |   lambda    |   F.delta'  |    enthalpy     | <-- min BFGS
 +------------+-------------+-------------+-----------------+ <-- min BFGS
 |  previous  |    0.000000 |    0.286740 |   -14353.190577 | <-- min BFGS
 | trial step |    1.000000 |    0.174178 |   -14353.219559 | <-- min BFGS
 |  line step |    2.547391 |    0.008295 |   -14353.215407 | <-- min BFGS
 +------------+-------------+-------------+-----------------+ <-- min BFGS
  
 BFGS: finished iteration     4 with enthalpy= -1.43532154E+004 eV
  
 +-----------+-----------------+-----------------+------------+-----+ <-- BFGS
 | Parameter |      value      |    tolerance    |    units   | OK? | <-- BFGS
 +-----------+-----------------+-----------------+------------+-----+ <-- BFGS
 |  dE/ion   |   1.551888E-003 |   2.000000E-005 |         eV | No  | <-- BFGS
 |  |F|max   |   5.711192E-001 |   5.000000E-002 |       eV/A | No  | <-- BFGS
 |  |dR|max  |   1.891107E-002 |   1.000000E-003 |          A | No  | <-- BFGS
 |   Smax    |   4.408230E+000 |   1.000000E-001 |        GPa | No  | <-- BFGS
 +-----------+-----------------+-----------------+------------+-----+ <-- BFGS
  

================================================================================
 Starting BFGS iteration          5 ...
================================================================================

Writing analysis data to MgOnew.castep_bin

Writing model to MgOnew.check
  
 +------------+-------------+-------------+-----------------+ <-- min BFGS
 |    Step    |   lambda    |   F.delta'  |    enthalpy     | <-- min BFGS
 +------------+-------------+-------------+-----------------+ <-- min BFGS
 |  previous  |    0.000000 |    0.637230 |   -14353.215407 | <-- min BFGS
 +------------+-------------+-------------+-----------------+ <-- min BFGS
  

--------------------------------------------------------------------------------
 BFGS: starting iteration         5 with trial guess (lambda=  1.000000)
--------------------------------------------------------------------------------
 
                           -------------------------------
                                      Unit Cell
                           -------------------------------
[...]
 smearing scheme                                : Gaussian
 smearing width                                 : 0.2000       eV
 Fermi energy convergence tolerance             : 0.2721E-13   eV
 periodic dipole correction                     : NONE

 ************************** Density Mixing Parameters **************************
  
 density-mixing scheme                          : Pulay
 max. length of mixing history                  :         30
 charge density mixing amplitude                : 0.8000    
 cut-off energy for mixing                      :  500.0       eV

 *********************** Population Analysis Parameters ************************
  
 Population analysis with cutoff                :  3.000       A

 *******************************************************************************
  
 
                           -------------------------------
                                      Unit Cell
                           -------------------------------
        Real Lattice(A)                      Reciprocal Lattice(1/A)
   4.2000000   0.0000000   0.0000000        1.4959965   0.0000000   0.0000000
   0.0000000   8.4000000   0.0000000        0.0000000   0.7479983   0.0000000
   0.0000000   0.0000000   4.2000000        0.0000000   0.0000000   1.4959965
 
                       Lattice parameters(A)       Cell Angles
                    a =    4.200000          alpha =   90.000000
                    b =    8.400000          beta  =   90.000000
                    c =    4.200000          gamma =   90.000000
 
                       Current cell volume =  148.176000       A**3
 
                           -------------------------------
                                     Cell Contents
                           -------------------------------
                         Total number of ions in cell =   16
                      Total number of species in cell =    3
                        Max number of any one species =    8
 
            xxxxxxxxxxxxxxxxxxxxxxxxxxxxxxxxxxxxxxxxxxxxxxxxxxxxxxxxxxxx
            x  Element    Atom        Fractional coordinates of atoms  x
            x            Number           u          v          w      x
            x----------------------------------------------------------x
            x  O            1         0.500000   0.750000   0.500000   x 
            x  O            2         0.500000   0.500000   0.000000   x 
            x  O            3         0.000000   0.750000   0.000000   x 
            x  O            4         0.000000   0.500000   0.500000   x 
            x  O            5         0.500000   0.250000   0.500000   x 
            x  O            6         0.500000   0.000000   0.000000   x 
            x  O            7         0.000000   0.250000   0.000000   x 
            x  O            8         0.000000   0.000000   0.500000   x 
            x  Mg           1         0.000000   0.500000   0.000000   x 
            x  Mg           2         0.500000   0.500000   0.500000   x 
            x  Mg           3         0.000000   0.250000   0.500000   x 
            x  Mg           4         0.500000   0.250000   0.000000   x 
            x  Ca           1         0.000000   0.750000   0.500000   x 
            x  Ca           2         0.500000   0.750000   0.000000   x 
            x  Ca           3         0.000000   0.000000   0.000000   x 
            x  Ca           4         0.500000   0.000000   0.500000   x 
            xxxxxxxxxxxxxxxxxxxxxxxxxxxxxxxxxxxxxxxxxxxxxxxxxxxxxxxxxxxx
 
 
                         No user defined ionic velocities
 
                           -------------------------------
                                   Details of Species
                           -------------------------------
 
                               Mass of species in AMU
                                    O   15.9994000
                                    Mg   24.3050000
                                    Ca   40.0780000
 
                          Electric Quadrupole Moment (Barn)
                                    O   -0.0255800 Isotope 17
                                    Mg    0.1994000 Isotope 25
                                    Ca   -0.0408000 Isotope 43
 
                          Files used for pseudopotentials:
                                    O O_OTF.usp
                                    Mg Mg_OTF.usp
                                    Ca Ca_OTF.usp
 
                           -------------------------------
                              k-Points For BZ Sampling
                           -------------------------------
                       MP grid size for SCF calculation is  2  2  2
                            with an offset of   0.000  0.000  0.000
                       Number of kpoints used =             1
 
                           -------------------------------
                               Symmetry and Constraints
                           -------------------------------
 
                      Cell is a supercell containing 2 primitive cells
                      Maximum deviation from symmetry = 0.188002E-14     ANG
 
                      Number of symmetry operations   =          32
                      Number of ionic constraints     =           3
                      Point group of crystal =    15: D4h, 4/mmm, 4/m 2/m 2/m
                      Space group of crystal =   129: P4/nmm, P 4ab 2ab -1ab
 
             Set iprint > 1 for details on symmetry rotations/translations
 
                         Centre of mass is constrained
             Set iprint > 1 for details of linear ionic constraints
 
                         Number of cell constraints= 4
                         Cell constraints are:  1 2 1 0 0 0
 
                         External pressure/stress (GPa)
                          0.00000   0.00000   0.00000
                                    0.00000   0.00000
                                              0.00000
  
+---------------- MEMORY AND SCRATCH DISK ESTIMATES PER PROCESS --------------+
|                                                     Memory          Disk    |
| Baseline code, static data and system overhead      146.0 MB         0.0 MB |
| BLAS internal memory storage                          0.0 MB         0.0 MB |
| Model and support data                              292.7 MB         0.0 MB |
| Electronic energy minimisation requirements          23.5 MB         0.0 MB |
| Force calculation requirements                        8.5 MB         0.0 MB |
| Stress calculation requirements                      10.0 MB         0.0 MB |
|                                               ----------------------------- |
| Approx. total storage required per process          462.1 MB         0.0 MB |
|                                                                             |
| Requirements will fluctuate during execution and may exceed these estimates |
+-----------------------------------------------------------------------------+
Calculating finite basis set correction with  3 cut-off energies.
Calculating total energy with cut-off of  490.000eV.
------------------------------------------------------------------------ <-- SCF
SCF loop      Energy           Fermi           Energy gain       Timer   <-- SCF
                               energy          per atom          (sec)   <-- SCF
------------------------------------------------------------------------ <-- SCF
Initial  -1.17196382E+004  0.00000000E+000                         3.12  <-- SCF
      1  -1.39982332E+004  9.58109965E+000   1.42412188E+002       4.21  <-- SCF
      2  -1.43552263E+004  9.19284143E+000   2.23120674E+001       4.99  <-- SCF
      3  -1.43620948E+004  9.06375439E+000   4.29278282E-001       5.92  <-- SCF
      4  -1.43575420E+004  1.01004336E+001  -2.84546172E-001       7.11  <-- SCF
      5  -1.43471567E+004  1.04288586E+001  -6.49084263E-001       8.31  <-- SCF
      6  -1.43468099E+004  1.10953005E+001  -2.16730971E-002       9.58  <-- SCF
      7  -1.43467013E+004  1.12057227E+001  -6.78473832E-003      10.81  <-- SCF
      8  -1.43466854E+004  1.13033341E+001  -9.93161418E-004      12.05  <-- SCF
      9  -1.43466836E+004  1.13522274E+001  -1.13189608E-004      13.29  <-- SCF
     10  -1.43466837E+004  1.13523310E+001   3.11168650E-006      14.50  <-- SCF
     11  -1.43466837E+004  1.13526827E+001   5.86029697E-008      15.54  <-- SCF
     12  -1.43466837E+004  1.13526143E+001   1.35280159E-008      16.41  <-- SCF
------------------------------------------------------------------------ <-- SCF
 
Final energy, E             =  -14346.68368710     eV
Final free energy (E-TS)    =  -14346.68368710     eV
(energies not corrected for finite basis set)
 
NB est. 0K energy (E-0.5TS)      =  -14346.68368710     eV
 
Calculating total energy with cut-off of  495.000eV.
------------------------------------------------------------------------ <-- SCF
SCF loop      Energy           Fermi           Energy gain       Timer   <-- SCF
                               energy          per atom          (sec)   <-- SCF
------------------------------------------------------------------------ <-- SCF
Initial  -1.43466837E+004  0.00000000E+000                        17.15  <-- SCF
      1  -1.43469599E+004  1.13499813E+001   1.72603636E-002      18.02  <-- SCF
      2  -1.43469599E+004  1.13499826E+001   3.99768889E-006      19.16  <-- SCF
      3  -1.43469601E+004  1.13502788E+001   1.33723907E-005      20.31  <-- SCF
      4  -1.43469603E+004  1.13502846E+001   1.24177553E-005      21.47  <-- SCF
      5  -1.43469600E+004  1.13501882E+001  -2.01634138E-005      22.59  <-- SCF
      6  -1.43469600E+004  1.13499867E+001   1.05137705E-007      23.67  <-- SCF
      7  -1.43469600E+004  1.13500897E+001  -1.14888464E-007      24.53  <-- SCF
      8  -1.43469600E+004  1.13501264E+001   4.10053541E-009      25.35  <-- SCF
      9  -1.43469600E+004  1.13501375E+001   5.49883191E-010      26.17  <-- SCF
------------------------------------------------------------------------ <-- SCF
 
Final energy, E             =  -14346.96000682     eV
Final free energy (E-TS)    =  -14346.96000682     eV
(energies not corrected for finite basis set)
 
NB est. 0K energy (E-0.5TS)      =  -14346.96000682     eV
 
Calculating total energy with cut-off of  500.000eV.
------------------------------------------------------------------------ <-- SCF
SCF loop      Energy           Fermi           Energy gain       Timer   <-- SCF
                               energy          per atom          (sec)   <-- SCF
------------------------------------------------------------------------ <-- SCF
Initial  -1.43469600E+004  0.00000000E+000                        26.92  <-- SCF
      1  -1.43470795E+004  1.13491855E+001   7.46817181E-003      27.82  <-- SCF
      2  -1.43470795E+004  1.13491855E+001   1.40109135E-006      28.91  <-- SCF
      3  -1.43470796E+004  1.13493836E+001   3.13350743E-006      30.08  <-- SCF
      4  -1.43470796E+004  1.13493968E+001   3.19378074E-006      31.24  <-- SCF
      5  -1.43470796E+004  1.13493593E+001  -4.38290585E-006      32.36  <-- SCF
      6  -1.43470795E+004  1.13492734E+001  -1.03488249E-007      33.32  <-- SCF
      7  -1.43470795E+004  1.13493276E+001  -2.79394412E-008      34.15  <-- SCF
      8  -1.43470795E+004  1.13493506E+001   1.29446834E-009      34.98  <-- SCF
------------------------------------------------------------------------ <-- SCF
 
Final energy, E             =  -14347.07954901     eV
Final free energy (E-TS)    =  -14347.07954901     eV
(energies not corrected for finite basis set)
 
NB est. 0K energy (E-0.5TS)      =  -14347.07954901     eV
 
 For future reference: finite basis dEtot/dlog(Ecut) =     -21.804043eV
 Total energy corrected for finite basis set =  -14347.129154 eV
 
 ***************** Symmetrised Forces *****************
 *                                                    *
 *            Cartesian components (eV/A)             *
 * -------------------------------------------------- *
 *                   x            y            z      *
 *                                                    *
 * O         1      0.00000     -2.04769      0.00000 *
 * O         2      0.00000     -2.16955      0.00000 *
 * O         3      0.00000     -2.04769      0.00000 *
 * O         4      0.00000     -2.16955      0.00000 *
 * O         5      0.00000      2.16955      0.00000 *
 * O         6      0.00000      2.04769      0.00000 *
 * O         7      0.00000      2.16955      0.00000 *
 * O         8      0.00000      2.04769      0.00000 *
 * Mg        1      0.00000     -0.49435      0.00000 *
 * Mg        2      0.00000     -0.49435      0.00000 *
 * Mg        3      0.00000      0.49435      0.00000 *
 * Mg        4      0.00000      0.49435      0.00000 *
 * Ca        1      0.00000     -0.70287      0.00000 *
 * Ca        2      0.00000     -0.70287      0.00000 *
 * Ca        3      0.00000      0.70287      0.00000 *
 * Ca        4      0.00000      0.70287      0.00000 *
 *                                                    *
 ******************************************************
 
 *********** Symmetrised Stress Tensor ***********
 *                                               *
 *          Cartesian components (GPa)           *
 * --------------------------------------------- *
 *             x             y             z     *
 *                                               *
 *  x    -55.764493      0.000000      0.000000  *
 *  y      0.000000    -55.196980      0.000000  *
 *  z      0.000000      0.000000    -55.764493  *
 *                                               *
 *  Pressure:   55.5753                          *
 *                                               *
 *************************************************
 
 Pseudo atomic calculation performed for O 2s2 2p4
 
 Converged in 31 iterations to a total energy of -433.8562 eV
 
 
 Pseudo atomic calculation performed for Mg 2s2 2p6 3s2
 
 Converged in 27 iterations to a total energy of -1690.9398 eV
 
 
 Pseudo atomic calculation performed for Ca 3s2 3p6 4s2
 
 Converged in 24 iterations to a total energy of -1004.5258 eV
 
Charge spilling parameter for spin component 1 = 0.21%
 
     Atomic Populations (Mulliken)
     -----------------------------
Species   Ion     s      p      d      f     Total  Charge (e)
==============================================================
  O        1     1.84   5.06   0.00   0.00   6.90    -0.90
  O        2     1.84   5.15   0.00   0.00   6.99    -0.99
  O        3     1.84   5.06   0.00   0.00   6.90    -0.90
  O        4     1.84   5.15   0.00   0.00   6.99    -0.99
  O        5     1.84   5.15   0.00   0.00   6.99    -0.99
  O        6     1.84   5.06   0.00   0.00   6.90    -0.90
  O        7     1.84   5.15   0.00   0.00   6.99    -0.99
  O        8     1.84   5.06   0.00   0.00   6.90    -0.90
  Mg       1     2.39   6.64   0.00   0.00   9.03     0.97
  Mg       2     2.39   6.64   0.00   0.00   9.03     0.97
  Mg       3     2.39   6.64   0.00   0.00   9.03     0.97
  Mg       4     2.39   6.64   0.00   0.00   9.03     0.97
  Ca       1     2.13   5.99   0.96   0.00   9.08     0.92
  Ca       2     2.13   5.99   0.96   0.00   9.08     0.92
  Ca       3     2.13   5.99   0.96   0.00   9.08     0.92
  Ca       4     2.13   5.99   0.96   0.00   9.08     0.92
==============================================================
 
            Bond              Population      Length (A)
============================================================
          O 8 -- Mg 3              0.31        2.10000
          O 7 -- Mg 1              0.31        2.10000
          O 6 -- Mg 4              0.31        2.10000
          O 5 -- Mg 2              0.31        2.10000
          O 4 -- Ca 1              0.15        2.10000
          O 3 -- Ca 3              0.07        2.10000
          O 2 -- Ca 2              0.15        2.10000
          O 1 -- Ca 4              0.07        2.10000
          O 8 -- Ca 4              0.19        2.10000
          O 8 -- Ca 3              0.19        2.10000
          O 8 -- Ca 1              0.07        2.10000
          O 7 -- Ca 3              0.15        2.10000
          O 7 -- Mg 4              0.53        2.10000
          O 7 -- Mg 3              0.53        2.10000
          O 6 -- Ca 4              0.19        2.10000
          O 6 -- Ca 3              0.19        2.10000
          O 6 -- Ca 2              0.07        2.10000
          O 5 -- Ca 4              0.15        2.10000
          O 5 -- Mg 4              0.53        2.10000
          O 5 -- Mg 3              0.53        2.10000
          O 4 -- Mg 3              0.31        2.10000
          O 4 -- Mg 2              0.53        2.10000
          O 4 -- Mg 1              0.53        2.10000
          O 3 -- Ca 2              0.19        2.10000
          O 3 -- Ca 1              0.19        2.10000
          O 3 -- Mg 1              0.31        2.10000
          O 2 -- Mg 4              0.31        2.10000
          O 2 -- Mg 2              0.53        2.10000
          O 2 -- Mg 1              0.53        2.10000
          O 1 -- Ca 2              0.19        2.10000
          O 1 -- Ca 1              0.19        2.10000
          O 1 -- Mg 2              0.31        2.10000
         Ca 2 -- Ca 4             -0.21        2.96985
         Ca 2 -- Ca 3             -0.21        2.96985
         Ca 1 -- Ca 4             -0.21        2.96985
         Ca 1 -- Ca 3             -0.21        2.96985
         Mg 2 -- Ca 2             -0.24        2.96985
         Mg 2 -- Ca 1             -0.24        2.96985
         Mg 1 -- Ca 2             -0.24        2.96985
         Mg 1 -- Ca 1             -0.24        2.96985
          O 6 -- O 7              -0.05        2.96985
          O 3 -- O 8              -0.02        2.96985
          O 3 -- O 6              -0.02        2.96985
          O 2 -- O 3              -0.05        2.96985
          O 1 -- O 8              -0.02        2.96985
          O 1 -- O 6              -0.02        2.96985
         Ca 3 -- Ca 4             -0.27        2.96985
         Ca 1 -- Ca 2             -0.27        2.96985
         Mg 4 -- Ca 4             -0.24        2.96985
         Mg 4 -- Ca 3             -0.24        2.96985
         Mg 3 -- Ca 4             -0.24        2.96985
         Mg 3 -- Ca 3             -0.24        2.96985
         Mg 3 -- Mg 4             -1.15        2.96985
         Mg 2 -- Mg 4             -0.31        2.96985
         Mg 2 -- Mg 3             -0.31        2.96985
         Mg 1 -- Mg 4             -0.31        2.96985
         Mg 1 -- Mg 3             -0.31        2.96985
         Mg 1 -- Mg 2             -1.15        2.96985
          O 7 -- O 8              -0.05        2.96985
          O 6 -- O 8              -0.04        2.96985
          O 5 -- O 8              -0.05        2.96985
          O 5 -- O 7              -0.13        2.96985
          O 5 -- O 6              -0.05        2.96985
          O 4 -- O 7              -0.07        2.96985
          O 4 -- O 5              -0.07        2.96985
          O 3 -- O 4              -0.05        2.96985
          O 2 -- O 7              -0.07        2.96985
          O 2 -- O 5              -0.07        2.96985
          O 2 -- O 4              -0.13        2.96985
          O 1 -- O 4              -0.05        2.96985
          O 1 -- O 3              -0.04        2.96985
          O 1 -- O 2              -0.05        2.96985
============================================================
 

Writing analysis data to MgOnew.castep_bin

Writing model to MgOnew.check
 
 A BibTeX formatted list of references used in this run has been written to 
 MgOnew.bib
 
Initialisation time =      1.05 s
Calculation time    =     44.94 s
Finalisation time   =      0.19 s
Total time          =     46.17 s
Peak Memory Use     = 710400 kB
